54
TIP5P (H2O)18 energy -780.3213 kJ/mol
O    -1.5397276790000001    -2.7302188450000000    -0.8276262272000000
H    -1.6941478942733568    -3.6743214488220106    -0.8601302357440378
H    -1.5066156522997551    -2.5244827531646497     0.1066157619035295
O    -3.5620764430000000     2.3168287680000001    -0.4700355785000000
H    -4.2341814536904918     1.6526997039255837    -0.3169366534339698
H    -3.0894050310502390     2.0063412580071773    -1.2423121367768108
O     0.3118797363000000     0.7816409011000000    -1.5183633379999999
H     0.2628942360765605     0.9239418341152574    -0.5730683019235130
H     1.0694405689510762     1.2948354179456560    -1.7993701221041609
O    -1.4887724040000001    -2.2390611830000000     1.7411304050000000
H    -2.1692828229280128    -1.6201788764572935     2.0059361835978251
H    -0.6728282342101870    -1.8451133407505795     2.0497921120079137
O     0.7033402873000000    -0.9123434338000000     2.5466934370000001
H     1.5326051330384693    -1.2588694036607486     2.2173434592644305
H     0.8208924033850882    -0.8700964202150452     3.4957079415504158
O     0.2859261991000000     1.2925376070000001     1.0886541519999999
H     0.3909230243294024     0.5197099296474308     1.6435819741621072
H    -0.5348459113569679     1.6885354013064886     1.3814864070546840
O    -2.1527404269999999     2.1780856190000000     1.7408754120000001
H    -2.2999057685759072     2.9711291082444018     2.2562939083754316
H    -2.6142676650980317     2.3378151112022154     0.9176434047174683
O     2.6768628020000000     2.0338328520000002    -1.8484370539999999
H     2.9693349972850775     2.5482841990495735    -2.6007878142867211
H     3.3176825982291169     1.3263083435273886    -1.7777907613055985
O     4.4182905610000001     0.1067515505000000    -1.4034420320000001
H     4.0173396371826593    -0.7621963731453321    -1.3834494663195103
H     4.7160909169340259     0.2543537055434084    -0.5058004599724395
O     2.6723302339999999     2.5345644040000002     0.8680468284000000
H     1.7916187773207022     2.2282804778282750     1.0843089994856123
H     2.6582257787560160     2.6546837702803066    -0.0814816030788515
O     0.6960175436000000    -1.8170037850000000    -1.9992192259999999
H    -0.0789508549911594    -2.2287000100500296    -1.6169077829792482
H     0.5299200384161151    -0.8772667441858359    -1.9248031464638640
O     3.0840407120000002    -2.2000471220000000    -0.9532295889000000
H     3.3795737090580049    -3.0451268765638195    -1.2919511501804535
H     2.2015886636032027    -2.0943551733215662    -1.3086721781670319
O     4.4773125870000001     0.6533804117000001     1.2731844100000000
H     5.1643404583517070     0.9835077958948230     1.8521839386618348
H     3.8404610876859446     1.3663918996356585     1.2255753153518312
O    -2.1561734769999998     1.0892721780000001    -2.4511043780000001
H    -1.2492911362040824     1.0154563059510864    -2.1538713431835856
H    -2.0898252617878681     1.4398295297464292    -3.3393269275193735
O    -3.2182767690000000    -0.2760278454000000     2.2842829459999998
H    -3.8904448990728637    -0.2366038206057497     1.6039392158287193
H    -2.8048803228371657     0.5870502863957138     2.2635138170832607
O    -3.4977818630000002    -1.1920236550000001    -1.8408326180000001
H    -2.8141695563667373    -1.7980031523521915    -1.5550094156382330
H    -3.0209268469725066    -0.4549749650864965    -2.2224087734214413
O    -4.8287817689999999    -0.0414404430300000     0.1065700230000000
H    -4.4110706773464008    -0.5630834683709688    -0.5787312523692205
H    -5.7428942725864198    -0.3253341257149170     0.1006922922675692
O     3.0877627190000001    -1.6281527050000000     1.6925200670000000
H     3.6593920418376298    -0.8612664145097357     1.6556802145264173
H     3.0846897651398941    -1.9683847575270463     0.7978332238041209
