 60
25304   Energy =     -872.9887544952  kJ/mol
O    0.3470450  -0.7178074  -0.3141646
H   -0.4987771  -0.4023865  -0.6324831
H    0.4310626  -1.5958882  -0.6858463
O    1.6727305   1.3910313  -1.4036375
H    1.3457584   0.5950317  -0.9844648
H    2.0394098   1.0910128  -2.2353629
O    2.3018465   0.3812069  -3.8845400
H    3.1099899   0.3801893  -4.3975071
H    2.0321756  -0.5368862  -3.8597484
O    0.1025673  -3.1189675  -1.5785035
H   -0.7300398  -2.8548031  -1.9699297
H   -0.1423526  -3.7271640  -0.8811203
O   -2.8168905   0.4280904   1.3812494
H   -3.4076222  -0.3195473   1.4723865
H   -1.9935236   0.1320979   1.7694340
O   -4.0874498  -2.0205216   1.5782400
H   -3.9284136  -2.5432513   0.7923054
H   -4.9531663  -2.2967179   1.8790432
O   -3.4229815  -3.5842142  -0.5206354
H   -2.6411841  -4.0554473  -0.2326002
H   -3.1633283  -3.1685169  -1.3428324
O   -0.7506626   2.3661529  -2.1609725
H   -0.9151074   3.1344968  -1.6143121
H    0.1319230   2.0846668  -1.9200570
O   -2.0420422   0.1630925  -1.2136159
H   -1.7487716   1.0099069  -1.5499635
H   -2.4304310   0.3644856  -0.3622482
O   -0.2800640   1.1040261  -4.6117443
H    0.6548920   0.9730038  -4.4538758
H   -0.5698339   1.6605327  -3.8888571
O    0.4395343   2.1254982   2.8973441
H    0.8751504   2.4986854   2.1310530
H    0.9424998   2.4534973   3.6427798
O    1.4361964   3.2411346   0.6566335
H    0.7004338   3.7381475   0.2990532
H    1.6959489   2.6531787  -0.0526398
O   -1.0265126  -4.5692310   0.4896893
H   -0.8653801  -5.4371521   0.8597992
H   -1.1597562  -4.0046194   1.2510643
O    1.3071138  -2.1277620  -3.8956797
H    0.4836151  -2.0150491  -4.3704194
H    1.0632203  -2.6034941  -3.1016854
O   -1.1385446  -1.4258139  -5.0114174
H   -0.9184261  -0.5007828  -4.9014301
H   -1.4524214  -1.4922285  -5.9132503
O   -1.9905990   3.0299735   1.8988378
H   -1.2100748   2.7681006   2.3871375
H   -2.4725335   2.2144503   1.7613859
O   -0.9695361   4.3238367  -0.2345309
H   -1.2732431   5.2313581  -0.2145549
H   -1.4117555   3.9064496   0.5046998
O   -2.2412072  -2.1731324  -2.6014442
H   -2.2859870  -1.3195776  -2.1705486
H   -1.9941113  -1.9734685  -3.5043893
O   -1.6276977  -2.9066441   2.5290618
H   -2.5203412  -2.6143057   2.3447852
H   -1.1228631  -2.0977796   2.6133951
O   -0.3997161  -0.4285041   2.2859951
H    0.0022440  -0.5697997   1.4288512
H   -0.0190375   0.3927811   2.5971324
