60
TIP5P (H2O)20 energy -881.3449 kJ/mol
O     4.1295616239999999    -2.2289134320000001     1.0062717420000000
H     3.8033109299411660    -1.5848971372600835     1.6347901082675249
H     4.5292907490892977    -2.9104433503749707     1.5466100035687615
O     5.2042479490000000    -0.3725508810000000    -0.6901579847000000
H     5.0655879380779405    -1.1526279973734896    -0.1530500496613193
H     4.6476893449103418    -0.5072642277922801    -1.4571825438959847
O     3.3387205430000000    -0.2547836970000000     2.5717901009999999
H     3.7716016012550106     0.5219175768229896     2.2174160604076230
H     2.4037446474523883    -0.0703489843473830     2.4821477476524398
O     0.0286299775200000     4.0538111079999997    -0.0782767337600000
H     0.1964700551063379     4.5812189540106552    -0.8592392887664569
H     0.8031657902464185     3.4978664917802442     0.0068801714238798
O    -3.3299864659999998    -0.3547216369000000    -2.6219824630000002
H    -3.6056219736933444    -1.0854426290956041    -2.0685353214739965
H    -3.5819703475101186    -0.6161081382094007    -3.5076534292128065
O    -4.3417359089999996     1.5733258139999999    -0.9196855090000000
H    -3.5354739945611700     1.9767178745560248    -0.5980515387701784
H    -4.0743999448511268     1.0955985978089702    -1.7048861388921075
O     4.4108786970000002     1.6186827790000000     0.8471562023000000
H     5.1355974836595157     2.2347616750235217     0.9542137295327836
H     4.7435716443122580     0.9604886496440593     0.2369695661876882
O    -4.1522053359999997    -2.1876916199999998    -0.9088417626000000
H    -3.4626514979694227    -2.5161268531029712    -0.3318862685505041
H    -4.7438326159772179    -1.7096201240164115    -0.3277594566271085
O    -5.2612672810000003    -0.2833332941000000     0.7111678818000000
H    -6.1699478001831292    -0.0810476531968846     0.9339055605647217
H    -4.9745326266030423     0.4573467452385412     0.1769318316374198
O     3.3132623230000000    -0.9103683053000000    -2.5412881110000001
H     2.6938444009186817    -0.1806754895296893    -2.5513713851536375
H     3.5073523110016649    -1.0731772051959940    -3.4643559192742193
O     0.8522462255000000     0.3617565802000000     1.6860264940000000
H     0.0761101177879823     0.6788660435848854     2.1478556513053717
H     0.5474787575693465    -0.4073405492822751     1.2045306623324104
O     1.5812509189999999     1.0588025679999999    -2.4659267100000002
H     1.7397318994717750     1.5536001435474927    -1.6620044637217743
H     0.6746185638610027     0.7613698632288779    -2.3898780496064664
O    -1.8322005820000000     2.1232638730000000    -0.0430316423900000
H    -1.7700983787346594     1.8591389542381265     0.8749079981303471
H    -1.3355224288424816     2.9400613861675517    -0.0918627253120542
O     2.2006170169999999    -2.7023908809999999    -0.8425162978000000
H     2.5847611394748014    -2.1893903385715161    -1.5534984189789691
H     2.8625044607103289    -2.6876950506483235    -0.1511980755398881
O    -0.0084645596020000    -1.5556664529999999     0.0608680286000000
H     0.7210436025814303    -2.0740849144866975    -0.2786786988139450
H    -0.2860682460741295    -1.0176090824279247    -0.6805241073376217
O    -0.8765059637000000     0.2573939051000000    -1.6776131510000001
H    -1.6311615081839645     0.0224604752825043    -2.2175512333148144
H    -1.1989237318375296     0.9525572325437166    -1.1040047733008986
O    -1.5968192569999999     1.1822181080000000     2.4715401520000002
H    -2.2073678164512813     0.4476586000360673     2.5338669184150042
H    -1.7705371505219221     1.7057124744145846     3.2538492864235344
O     1.8948510340000000     2.1188420980000000    -0.0154268002800000
H     1.4963561952750966     1.5042468511548737     0.6007764016469226
H     2.8121560316541077     2.1676252295075007     0.2536523467364876
O    -2.2326436969999999    -2.7015947800000002     0.9367299213000000
H    -2.0080375117091664    -3.5842270884208807     1.2312534511931612
H    -1.4032006672130164    -2.3307895861256447     0.6354665671833873
O    -3.3229663679999999    -0.7951579693000000     2.5212722460000001
H    -4.1014552507677795    -0.5901532136238608     2.0034306200590746
H    -2.9467175717163627    -1.5649253913030838     2.0945090806285713
